M 1.00000 0 (50.00, 100.00, 0.00), (200.00, 100.00), 10.00
M 1.00000 2 (250.00, 100.00, 0.00), (50.00, 100.00), 10.00
s 2.000000000 _0_ AGT  --- 0 cbr 512 [0 0 0 0] ------- [0:0 2:0 32 0] [0] 0 0
r 2.000000000 _0_ RTR  --- 0 cbr 512 [0 0 0 0] ------- [0:0 2:0 32 0] [0] 0 0
s 2.000000000 _0_ RTR  --- 0 AODV 48 [0 0 0 0] ------- [0:255 -1:255 30 0] [0x2 1 1 [2 0] [0 4]] (REQUEST)
r 2.001408300 _1_ RTR  --- 0 AODV 48 [0 ffffffff 0 800] ------- [0:255 -1:255 30 0] [0x2 1 1 [2 0] [0 4]] (REQUEST)
r 2.001408600 _2_ RTR  --- 0 AODV 48 [0 ffffffff 0 800] ------- [0:255 -1:255 30 0] [0x2 1 1 [2 0] [0 4]] (REQUEST)
s 2.001408600 _2_ RTR  --- 0 AODV 44 [0 0 0 0] ------- [2:255 0:255 30 0] [0x4 1 [2 4] 10.000000] (REPLY)
s 2.001550347 _1_ RTR  --- 0 AODV 48 [0 ffffffff 0 800] ------- [1:255 -1:255 29 0] [0x2 2 1 [2 0] [0 4]] (REQUEST)
r 2.005310599 _0_ RTR  --- 0 AODV 48 [0 ffffffff 1 800] ------- [1:255 -1:255 29 0] [0x2 2 1 [2 0] [0 4]] (REQUEST)
r 2.005310599 _2_ RTR  --- 0 AODV 48 [0 ffffffff 1 800] ------- [1:255 -1:255 29 0] [0x2 2 1 [2 0] [0 4]] (REQUEST)
r 2.007014398 _0_ RTR  --- 0 AODV 44 [13a 0 2 800] ------- [2:255 0:255 30 0] [0x4 1 [2 4] 10.000000] (REPLY)
s 2.007014398 _0_ RTR  --- 0 cbr 532 [0 0 0 0] ------- [0:0 2:0 30 2] [0] 0 0
r 2.012836196 _2_ AGT  --- 0 cbr 532 [13a 2 0 800] ------- [0:0 2:0 30 2] [0] 1 0
s 2.200000000 _0_ AGT  --- 1 cbr 512 [0 0 0 0] ------- [0:0 2:0 32 0] [1] 0 0
r 2.200000000 _0_ RTR  --- 1 cbr 512 [0 0 0 0] ------- [0:0 2:0 32 0] [1] 0 0
s 2.200000000 _0_ RTR  --- 1 cbr 532 [0 0 0 0] ------- [0:0 2:0 30 2] [1] 0 0
r 2.205537760 _2_ AGT  --- 1 cbr 532 [13a 2 0 800] ------- [0:0 2:0 30 2] [1] 1 0
s 2.400000000 _0_ AGT  --- 2 cbr 512 [0 0 0 0] ------- [0:0 2:0 32 0] [2] 0 0
r 2.400000000 _0_ RTR  --- 2 cbr 512 [0 0 0 0] ------- [0:0 2:0 32 0] [2] 0 0
s 2.400000000 _0_ RTR  --- 2 cbr 532 [0 0 0 0] ------- [0:0 2:0 30 2] [2] 0 0
r 2.405657720 _2_ AGT  --- 2 cbr 532 [13a 2 0 800] ------- [0:0 2:0 30 2] [2] 1 0
s 2.600000000 _0_ AGT  --- 3 cbr 512 [0 0 0 0] ------- [0:0 2:0 32 0] [3] 0 0
r 2.600000000 _0_ RTR  --- 3 cbr 512 [0 0 0 0] ------- [0:0 2:0 32 0] [3] 0 0
s 2.600000000 _0_ RTR  --- 3 cbr 532 [0 0 0 0] ------- [0:0 2:0 30 2] [3] 0 0
r 2.605737680 _2_ AGT  --- 3 cbr 532 [13a 2 0 800] ------- [0:0 2:0 30 2] [3] 1 0
s 2.800000000 _0_ AGT  --- 4 cbr 512 [0 0 0 0] ------- [0:0 2:0 32 0] [4] 0 0
r 2.800000000 _0_ RTR  --- 4 cbr 512 [0 0 0 0] ------- [0:0 2:0 32 0] [4] 0 0
s 2.800000000 _0_ RTR  --- 4 cbr 532 [0 0 0 0] ------- [0:0 2:0 30 2] [4] 0 0
r 2.805977640 _2_ AGT  --- 4 cbr 532 [13a 2 0 800] ------- [0:0 2:0 30 2] [4] 1 0
s 3.000000000 _0_ AGT  --- 5 cbr 512 [0 0 0 0] ------- [0:0 2:0 32 0] [5] 0 0
r 3.000000000 _0_ RTR  --- 5 cbr 512 [0 0 0 0] ------- [0:0 2:0 32 0] [5] 0 0
s 3.000000000 _0_ RTR  --- 5 cbr 532 [0 0 0 0] ------- [0:0 2:0 30 2] [5] 0 0
r 3.005817600 _2_ AGT  --- 5 cbr 532 [13a 2 0 800] ------- [0:0 2:0 30 2] [5] 1 0
s 3.200000000 _0_ AGT  --- 6 cbr 512 [0 0 0 0] ------- [0:0 2:0 32 0] [6] 0 0
r 3.200000000 _0_ RTR  --- 6 cbr 512 [0 0 0 0] ------- [0:0 2:0 32 0] [6] 0 0
s 3.200000000 _0_ RTR  --- 6 cbr 532 [0 0 0 0] ------- [0:0 2:0 30 2] [6] 0 0
r 3.205717560 _2_ AGT  --- 6 cbr 532 [13a 2 0 800] ------- [0:0 2:0 30 2] [6] 1 0
s 3.400000000 _0_ AGT  --- 7 cbr 512 [0 0 0 0] ------- [0:0 2:0 32 0] [7] 0 0
r 3.400000000 _0_ RTR  --- 7 cbr 512 [0 0 0 0] ------- [0:0 2:0 32 0] [7] 0 0
s 3.400000000 _0_ RTR  --- 7 cbr 532 [0 0 0 0] ------- [0:0 2:0 30 2] [7] 0 0
r 3.405737520 _2_ AGT  --- 7 cbr 532 [13a 2 0 800] ------- [0:0 2:0 30 2] [7] 1 0
s 3.600000000 _0_ AGT  --- 8 cbr 512 [0 0 0 0] ------- [0:0 2:0 32 0] [8] 0 0
r 3.600000000 _0_ RTR  --- 8 cbr 512 [0 0 0 0] ------- [0:0 2:0 32 0] [8] 0 0
s 3.600000000 _0_ RTR  --- 8 cbr 532 [0 0 0 0] ------- [0:0 2:0 30 2] [8] 0 0
r 3.605677480 _2_ AGT  --- 8 cbr 532 [13a 2 0 800] ------- [0:0 2:0 30 2] [8] 1 0
s 3.800000000 _0_ AGT  --- 9 cbr 512 [0 0 0 0] ------- [0:0 2:0 32 0] [9] 0 0
r 3.800000000 _0_ RTR  --- 9 cbr 512 [0 0 0 0] ------- [0:0 2:0 32 0] [9] 0 0
s 3.800000000 _0_ RTR  --- 9 cbr 532 [0 0 0 0] ------- [0:0 2:0 30 2] [9] 0 0
r 3.805897440 _2_ AGT  --- 9 cbr 532 [13a 2 0 800] ------- [0:0 2:0 30 2] [9] 1 0
s 4.000000000 _0_ AGT  --- 10 cbr 512 [0 0 0 0] ------- [0:0 2:0 32 0] [10] 0 0
r 4.000000000 _0_ RTR  --- 10 cbr 512 [0 0 0 0] ------- [0:0 2:0 32 0] [10] 0 0
s 4.000000000 _0_ RTR  --- 10 cbr 532 [0 0 0 0] ------- [0:0 2:0 30 2] [10] 0 0
r 4.005857400 _2_ AGT  --- 10 cbr 532 [13a 2 0 800] ------- [0:0 2:0 30 2] [10] 1 0
s 4.200000000 _0_ AGT  --- 11 cbr 512 [0 0 0 0] ------- [0:0 2:0 32 0] [11] 0 0
r 4.200000000 _0_ RTR  --- 11 cbr 512 [0 0 0 0] ------- [0:0 2:0 32 0] [11] 0 0
s 4.200000000 _0_ RTR  --- 11 cbr 532 [0 0 0 0] ------- [0:0 2:0 30 2] [11] 0 0
r 4.205797360 _2_ AGT  --- 11 cbr 532 [13a 2 0 800] ------- [0:0 2:0 30 2] [11] 1 0
s 4.400000000 _0_ AGT  --- 12 cbr 512 [0 0 0 0] ------- [0:0 2:0 32 0] [12] 0 0
r 4.400000000 _0_ RTR  --- 12 cbr 512 [0 0 0 0] ------- [0:0 2:0 32 0] [12] 0 0
s 4.400000000 _0_ RTR  --- 12 cbr 532 [0 0 0 0] ------- [0:0 2:0 30 2] [12] 0 0
r 4.405637320 _2_ AGT  --- 12 cbr 532 [13a 2 0 800] ------- [0:0 2:0 30 2] [12] 1 0
s 4.600000000 _0_ AGT  --- 13 cbr 512 [0 0 0 0] ------- [0:0 2:0 32 0] [13] 0 0
r 4.600000000 _0_ RTR  --- 13 cbr 512 [0 0 0 0] ------- [0:0 2:0 32 0] [13] 0 0
s 4.600000000 _0_ RTR  --- 13 cbr 532 [0 0 0 0] ------- [0:0 2:0 30 2] [13] 0 0
r 4.605777280 _2_ AGT  --- 13 cbr 532 [13a 2 0 800] ------- [0:0 2:0 30 2] [13] 1 0
s 4.800000000 _0_ AGT  --- 14 cbr 512 [0 0 0 0] ------- [0:0 2:0 32 0] [14] 0 0
r 4.800000000 _0_ RTR  --- 14 cbr 512 [0 0 0 0] ------- [0:0 2:0 32 0] [14] 0 0
s 4.800000000 _0_ RTR  --- 14 cbr 532 [0 0 0 0] ------- [0:0 2:0 30 2] [14] 0 0
r 4.805597240 _2_ AGT  --- 14 cbr 532 [13a 2 0 800] ------- [0:0 2:0 30 2] [14] 1 0
s 5.000000000 _0_ AGT  --- 15 cbr 512 [0 0 0 0] ------- [0:0 2:0 32 0] [15] 0 0
r 5.000000000 _0_ RTR  --- 15 cbr 512 [0 0 0 0] ------- [0:0 2:0 32 0] [15] 0 0
s 5.000000000 _0_ RTR  --- 15 cbr 532 [0 0 0 0] ------- [0:0 2:0 30 2] [15] 0 0
r 5.005717200 _2_ AGT  --- 15 cbr 532 [13a 2 0 800] ------- [0:0 2:0 30 2] [15] 1 0
s 5.200000000 _0_ AGT  --- 16 cbr 512 [0 0 0 0] ------- [0:0 2:0 32 0] [16] 0 0
r 5.200000000 _0_ RTR  --- 16 cbr 512 [0 0 0 0] ------- [0:0 2:0 32 0] [16] 0 0
s 5.200000000 _0_ RTR  --- 16 cbr 532 [0 0 0 0] ------- [0:0 2:0 30 2] [16] 0 0
r 5.206077160 _2_ AGT  --- 16 cbr 532 [13a 2 0 800] ------- [0:0 2:0 30 2] [16] 1 0
s 5.400000000 _0_ AGT  --- 17 cbr 512 [0 0 0 0] ------- [0:0 2:0 32 0] [17] 0 0
r 5.400000000 _0_ RTR  --- 17 cbr 512 [0 0 0 0] ------- [0:0 2:0 32 0] [17] 0 0
s 5.400000000 _0_ RTR  --- 17 cbr 532 [0 0 0 0] ------- [0:0 2:0 30 2] [17] 0 0
r 5.405617120 _2_ AGT  --- 17 cbr 532 [13a 2 0 800] ------- [0:0 2:0 30 2] [17] 1 0
s 5.600000000 _0_ AGT  --- 18 cbr 512 [0 0 0 0] ------- [0:0 2:0 32 0] [18] 0 0
r 5.600000000 _0_ RTR  --- 18 cbr 512 [0 0 0 0] ------- [0:0 2:0 32 0] [18] 0 0
s 5.600000000 _0_ RTR  --- 18 cbr 532 [0 0 0 0] ------- [0:0 2:0 30 2] [18] 0 0
r 5.605997080 _2_ AGT  --- 18 cbr 532 [13a 2 0 800] ------- [0:0 2:0 30 2] [18] 1 0
s 5.800000000 _0_ AGT  --- 19 cbr 512 [0 0 0 0] ------- [0:0 2:0 32 0] [19] 0 0
r 5.800000000 _0_ RTR  --- 19 cbr 512 [0 0 0 0] ------- [0:0 2:0 32 0] [19] 0 0
s 5.800000000 _0_ RTR  --- 19 cbr 532 [0 0 0 0] ------- [0:0 2:0 30 2] [19] 0 0
r 5.805677040 _2_ AGT  --- 19 cbr 532 [13a 2 0 800] ------- [0:0 2:0 30 2] [19] 1 0
s 6.000000000 _0_ AGT  --- 20 cbr 512 [0 0 0 0] ------- [0:0 2:0 32 0] [20] 0 0
r 6.000000000 _0_ RTR  --- 20 cbr 512 [0 0 0 0] ------- [0:0 2:0 32 0] [20] 0 0
s 6.000000000 _0_ RTR  --- 20 cbr 532 [0 0 0 0] ------- [0:0 2:0 30 2] [20] 0 0
r 6.005977000 _2_ AGT  --- 20 cbr 532 [13a 2 0 800] ------- [0:0 2:0 30 2] [20] 1 0
s 6.200000000 _0_ AGT  --- 21 cbr 512 [0 0 0 0] ------- [0:0 2:0 32 0] [21] 0 0
r 6.200000000 _0_ RTR  --- 21 cbr 512 [0 0 0 0] ------- [0:0 2:0 32 0] [21] 0 0
s 6.200000000 _0_ RTR  --- 21 cbr 532 [0 0 0 0] ------- [0:0 2:0 30 2] [21] 0 0
r 6.205716960 _2_ AGT  --- 21 cbr 532 [13a 2 0 800] ------- [0:0 2:0 30 2] [21] 1 0
s 6.400000000 _0_ AGT  --- 22 cbr 512 [0 0 0 0] ------- [0:0 2:0 32 0] [22] 0 0
r 6.400000000 _0_ RTR  --- 22 cbr 512 [0 0 0 0] ------- [0:0 2:0 32 0] [22] 0 0
s 6.400000000 _0_ RTR  --- 22 cbr 532 [0 0 0 0] ------- [0:0 2:0 30 2] [22] 0 0
r 6.405656920 _2_ AGT  --- 22 cbr 532 [13a 2 0 800] ------- [0:0 2:0 30 2] [22] 1 0
s 6.600000000 _0_ AGT  --- 23 cbr 512 [0 0 0 0] ------- [0:0 2:0 32 0] [23] 0 0
r 6.600000000 _0_ RTR  --- 23 cbr 512 [0 0 0 0] ------- [0:0 2:0 32 0] [23] 0 0
s 6.600000000 _0_ RTR  --- 23 cbr 532 [0 0 0 0] ------- [0:0 2:0 30 2] [23] 0 0
r 6.605576880 _2_ AGT  --- 23 cbr 532 [13a 2 0 800] ------- [0:0 2:0 30 2] [23] 1 0
s 6.800000000 _0_ AGT  --- 24 cbr 512 [0 0 0 0] ------- [0:0 2:0 32 0] [24] 0 0
r 6.800000000 _0_ RTR  --- 24 cbr 512 [0 0 0 0] ------- [0:0 2:0 32 0] [24] 0 0
s 6.800000000 _0_ RTR  --- 24 cbr 532 [0 0 0 0] ------- [0:0 2:0 30 2] [24] 0 0
r 6.805496840 _2_ AGT  --- 24 cbr 532 [13a 2 0 800] ------- [0:0 2:0 30 2] [24] 1 0
s 7.000000000 _0_ AGT  --- 25 cbr 512 [0 0 0 0] ------- [0:0 2:0 32 0] [25] 0 0
r 7.000000000 _0_ RTR  --- 25 cbr 512 [0 0 0 0] ------- [0:0 2:0 32 0] [25] 0 0
s 7.000000000 _0_ RTR  --- 25 cbr 532 [0 0 0 0] ------- [0:0 2:0 30 2] [25] 0 0
r 7.005796800 _2_ AGT  --- 25 cbr 532 [13a 2 0 800] ------- [0:0 2:0 30 2] [25] 1 0
s 7.200000000 _0_ AGT  --- 26 cbr 512 [0 0 0 0] ------- [0:0 2:0 32 0] [26] 0 0
r 7.200000000 _0_ RTR  --- 26 cbr 512 [0 0 0 0] ------- [0:0 2:0 32 0] [26] 0 0
s 7.200000000 _0_ RTR  --- 26 cbr 532 [0 0 0 0] ------- [0:0 2:0 30 2] [26] 0 0
r 7.205516760 _2_ AGT  --- 26 cbr 532 [13a 2 0 800] ------- [0:0 2:0 30 2] [26] 1 0
s 7.400000000 _0_ AGT  --- 27 cbr 512 [0 0 0 0] ------- [0:0 2:0 32 0] [27] 0 0
r 7.400000000 _0_ RTR  --- 27 cbr 512 [0 0 0 0] ------- [0:0 2:0 32 0] [27] 0 0
s 7.400000000 _0_ RTR  --- 27 cbr 532 [0 0 0 0] ------- [0:0 2:0 30 2] [27] 0 0
r 7.405736720 _2_ AGT  --- 27 cbr 532 [13a 2 0 800] ------- [0:0 2:0 30 2] [27] 1 0
s 7.600000000 _0_ AGT  --- 28 cbr 512 [0 0 0 0] ------- [0:0 2:0 32 0] [28] 0 0
r 7.600000000 _0_ RTR  --- 28 cbr 512 [0 0 0 0] ------- [0:0 2:0 32 0] [28] 0 0
s 7.600000000 _0_ RTR  --- 28 cbr 532 [0 0 0 0] ------- [0:0 2:0 30 2] [28] 0 0
r 7.605796680 _2_ AGT  --- 28 cbr 532 [13a 2 0 800] ------- [0:0 2:0 30 2] [28] 1 0
s 7.800000000 _0_ AGT  --- 29 cbr 512 [0 0 0 0] ------- [0:0 2:0 32 0] [29] 0 0
r 7.800000000 _0_ RTR  --- 29 cbr 512 [0 0 0 0] ------- [0:0 2:0 32 0] [29] 0 0
s 7.800000000 _0_ RTR  --- 29 cbr 532 [0 0 0 0] ------- [0:0 2:0 30 2] [29] 0 0
r 7.805956640 _2_ AGT  --- 29 cbr 532 [13a 2 0 800] ------- [0:0 2:0 30 2] [29] 1 0
