+ 1 1 0 tcp 40 ------- 1 1.0 0.0 0 0
- 1 1 0 tcp 40 ------- 1 1.0 0.0 0 0
r 1.01032 1 0 tcp 40 ------- 1 1.0 0.0 0 0
+ 1.01032 0 1 ack 40 ------- 1 0.0 1.0 0 1
- 1.01032 0 1 ack 40 ------- 1 0.0 1.0 0 1
r 1.02064 0 1 ack 40 ------- 1 0.0 1.0 0 1
+ 1.02064 1 0 tcp 1040 ------- 1 1.0 0.0 1 2
- 1.02064 1 0 tcp 1040 ------- 1 1.0 0.0 1 2
+ 1.02064 1 0 tcp 1040 ------- 1 1.0 0.0 2 3
- 1.02896 1 0 tcp 1040 ------- 1 1.0 0.0 2 3
r 1.03896 1 0 tcp 1040 ------- 1 1.0 0.0 1 2
+ 1.03896 0 1 ack 40 ------- 1 0.0 1.0 1 4
- 1.03896 0 1 ack 40 ------- 1 0.0 1.0 1 4
r 1.04728 1 0 tcp 1040 ------- 1 1.0 0.0 2 3
+ 1.04728 0 1 ack 40 ------- 1 0.0 1.0 2 5
- 1.04728 0 1 ack 40 ------- 1 0.0 1.0 2 5
r 1.04928 0 1 ack 40 ------- 1 0.0 1.0 1 4
+ 1.04928 1 0 tcp 1040 ------- 1 1.0 0.0 3 6
- 1.04928 1 0 tcp 1040 ------- 1 1.0 0.0 3 6
+ 1.04928 1 0 tcp 1040 ------- 1 1.0 0.0 4 7
r 1.0576 0 1 ack 40 ------- 1 0.0 1.0 2 5
+ 1.0576 1 0 tcp 1040 ------- 1 1.0 0.0 5 8
+ 1.0576 1 0 tcp 1040 ------- 1 1.0 0.0 6 9
- 1.0576 1 0 tcp 1040 ------- 1 1.0 0.0 4 7
- 1.06592 1 0 tcp 1040 ------- 1 1.0 0.0 5 8
r 1.0676 1 0 tcp 1040 ------- 1 1.0 0.0 3 6
+ 1.0676 0 1 ack 40 ------- 1 0.0 1.0 3 10
- 1.0676 0 1 ack 40 ------- 1 0.0 1.0 3 10
- 1.07424 1 0 tcp 1040 ------- 1 1.0 0.0 6 9
r 1.07592 1 0 tcp 1040 ------- 1 1.0 0.0 4 7
+ 1.07592 0 1 ack 40 ------- 1 0.0 1.0 4 11
- 1.07592 0 1 ack 40 ------- 1 0.0 1.0 4 11
r 1.07792 0 1 ack 40 ------- 1 0.0 1.0 3 10
+ 1.07792 1 0 tcp 1040 ------- 1 1.0 0.0 7 12
+ 1.07792 1 0 tcp 1040 ------- 1 1.0 0.0 8 13
- 1.08256 1 0 tcp 1040 ------- 1 1.0 0.0 7 12
r 1.08424 1 0 tcp 1040 ------- 1 1.0 0.0 5 8
+ 1.08424 0 1 ack 40 ------- 1 0.0 1.0 5 14
- 1.08424 0 1 ack 40 ------- 1 0.0 1.0 5 14
r 1.08624 0 1 ack 40 ------- 1 0.0 1.0 4 11
+ 1.08624 1 0 tcp 1040 ------- 1 1.0 0.0 9 15
+ 1.08624 1 0 tcp 1040 ------- 1 1.0 0.0 10 16
- 1.09088 1 0 tcp 1040 ------- 1 1.0 0.0 8 13
r 1.09256 1 0 tcp 1040 ------- 1 1.0 0.0 6 9
+ 1.09256 0 1 ack 40 ------- 1 0.0 1.0 6 17
- 1.09256 0 1 ack 40 ------- 1 0.0 1.0 6 17
r 1.09456 0 1 ack 40 ------- 1 0.0 1.0 5 14
+ 1.09456 1 0 tcp 1040 ------- 1 1.0 0.0 11 18
+ 1.09456 1 0 tcp 1040 ------- 1 1.0 0.0 12 19
- 1.0992 1 0 tcp 1040 ------- 1 1.0 0.0 9 15
r 1.10088 1 0 tcp 1040 ------- 1 1.0 0.0 7 12
+ 1.10088 0 1 ack 40 ------- 1 0.0 1.0 7 20
- 1.10088 0 1 ack 40 ------- 1 0.0 1.0 7 20
r 1.10288 0 1 ack 40 ------- 1 0.0 1.0 6 17
+ 1.10288 1 0 tcp 1040 ------- 1 1.0 0.0 13 21
+ 1.10288 1 0 tcp 1040 ------- 1 1.0 0.0 14 22
- 1.10752 1 0 tcp 1040 ------- 1 1.0 0.0 10 16
r 1.1092 1 0 tcp 1040 ------- 1 1.0 0.0 8 13
+ 1.1092 0 1 ack 40 ------- 1 0.0 1.0 8 23
- 1.1092 0 1 ack 40 ------- 1 0.0 1.0 8 23
r 1.1112 0 1 ack 40 ------- 1 0.0 1.0 7 20
+ 1.1112 1 0 tcp 1040 ------- 1 1.0 0.0 15 24
+ 1.1112 1 0 tcp 1040 ------- 1 1.0 0.0 16 25
- 1.11584 1 0 tcp 1040 ------- 1 1.0 0.0 11 18
r 1.11752 1 0 tcp 1040 ------- 1 1.0 0.0 9 15
+ 1.11752 0 1 ack 40 ------- 1 0.0 1.0 9 26
- 1.11752 0 1 ack 40 ------- 1 0.0 1.0 9 26
r 1.11952 0 1 ack 40 ------- 1 0.0 1.0 8 23
+ 1.11952 1 0 tcp 1040 ------- 1 1.0 0.0 17 27
+ 1.11952 1 0 tcp 1040 ------- 1 1.0 0.0 18 28
- 1.12416 1 0 tcp 1040 ------- 1 1.0 0.0 12 19
r 1.12584 1 0 tcp 1040 ------- 1 1.0 0.0 10 16
+ 1.12584 0 1 ack 40 ------- 1 0.0 1.0 10 29
- 1.12584 0 1 ack 40 ------- 1 0.0 1.0 10 29
r 1.12784 0 1 ack 40 ------- 1 0.0 1.0 9 26
+ 1.12784 1 0 tcp 1040 ------- 1 1.0 0.0 19 30
+ 1.12784 1 0 tcp 1040 ------- 1 1.0 0.0 20 31
- 1.13248 1 0 tcp 1040 ------- 1 1.0 0.0 13 21
r 1.13416 1 0 tcp 1040 ------- 1 1.0 0.0 11 18
+ 1.13416 0 1 ack 40 ------- 1 0.0 1.0 11 32
- 1.13416 0 1 ack 40 ------- 1 0.0 1.0 11 32
r 1.13616 0 1 ack 40 ------- 1 0.0 1.0 10 29
+ 1.13616 1 0 tcp 1040 ------- 1 1.0 0.0 21 33
+ 1.13616 1 0 tcp 1040 ------- 1 1.0 0.0 22 34
- 1.1408 1 0 tcp 1040 ------- 1 1.0 0.0 14 22
r 1.14248 1 0 tcp 1040 ------- 1 1.0 0.0 12 19
+ 1.14248 0 1 ack 40 ------- 1 0.0 1.0 12 35
- 1.14248 0 1 ack 40 ------- 1 0.0 1.0 12 35
r 1.14448 0 1 ack 40 ------- 1 0.0 1.0 11 32
+ 1.14448 1 0 tcp 1040 ------- 1 1.0 0.0 23 36
+ 1.14448 1 0 tcp 1040 ------- 1 1.0 0.0 24 37
- 1.14912 1 0 tcp 1040 ------- 1 1.0 0.0 15 24
r 1.1508 1 0 tcp 1040 ------- 1 1.0 0.0 13 21
+ 1.1508 0 1 ack 40 ------- 1 0.0 1.0 13 38
- 1.1508 0 1 ack 40 ------- 1 0.0 1.0 13 38
r 1.1528 0 1 ack 40 ------- 1 0.0 1.0 12 35
+ 1.1528 1 0 tcp 1040 ------- 1 1.0 0.0 25 39
+ 1.1528 1 0 tcp 1040 ------- 1 1.0 0.0 26 40
- 1.15744 1 0 tcp 1040 ------- 1 1.0 0.0 16 25
r 1.15912 1 0 tcp 1040 ------- 1 1.0 0.0 14 22
+ 1.15912 0 1 ack 40 ------- 1 0.0 1.0 14 41
- 1.15912 0 1 ack 40 ------- 1 0.0 1.0 14 41
r 1.16112 0 1 ack 40 ------- 1 0.0 1.0 13 38
+ 1.16112 1 0 tcp 1040 ------- 1 1.0 0.0 27 42
+ 1.16112 1 0 tcp 1040 ------- 1 1.0 0.0 28 43
- 1.16576 1 0 tcp 1040 ------- 1 1.0 0.0 17 27
r 1.16744 1 0 tcp 1040 ------- 1 1.0 0.0 15 24
+ 1.16744 0 1 ack 40 ------- 1 0.0 1.0 15 44
- 1.16744 0 1 ack 40 ------- 1 0.0 1.0 15 44
r 1.16944 0 1 ack 40 ------- 1 0.0 1.0 14 41
+ 1.16944 1 0 tcp 1040 ------- 1 1.0 0.0 29 45
+ 1.16944 1 0 tcp 1040 ------- 1 1.0 0.0 30 46
- 1.17408 1 0 tcp 1040 ------- 1 1.0 0.0 18 28
r 1.17576 1 0 tcp 1040 ------- 1 1.0 0.0 16 25
+ 1.17576 0 1 ack 40 ------- 1 0.0 1.0 16 47
- 1.17576 0 1 ack 40 ------- 1 0.0 1.0 16 47
r 1.17776 0 1 ack 40 ------- 1 0.0 1.0 15 44
+ 1.17776 1 0 tcp 1040 ------- 1 1.0 0.0 31 48
+ 1.17776 1 0 tcp 1040 ------- 1 1.0 0.0 32 49
- 1.1824 1 0 tcp 1040 ------- 1 1.0 0.0 19 30
r 1.18408 1 0 tcp 1040 ------- 1 1.0 0.0 17 27
+ 1.18408 0 1 ack 40 ------- 1 0.0 1.0 17 50
- 1.18408 0 1 ack 40 ------- 1 0.0 1.0 17 50
r 1.18608 0 1 ack 40 ------- 1 0.0 1.0 16 47
+ 1.18608 1 0 tcp 1040 ------- 1 1.0 0.0 33 51
+ 1.18608 1 0 tcp 1040 ------- 1 1.0 0.0 34 52
- 1.19072 1 0 tcp 1040 ------- 1 1.0 0.0 20 31
r 1.1924 1 0 tcp 1040 ------- 1 1.0 0.0 18 28
+ 1.1924 0 1 ack 40 ------- 1 0.0 1.0 18 53
- 1.1924 0 1 ack 40 ------- 1 0.0 1.0 18 53
r 1.1944 0 1 ack 40 ------- 1 0.0 1.0 17 50
+ 1.1944 1 0 tcp 1040 ------- 1 1.0 0.0 35 54
+ 1.1944 1 0 tcp 1040 ------- 1 1.0 0.0 36 55
- 1.19904 1 0 tcp 1040 ------- 1 1.0 0.0 21 33
r 1.20072 1 0 tcp 1040 ------- 1 1.0 0.0 19 30
+ 1.20072 0 1 ack 40 ------- 1 0.0 1.0 19 56
- 1.20072 0 1 ack 40 ------- 1 0.0 1.0 19 56
r 1.20272 0 1 ack 40 ------- 1 0.0 1.0 18 53
+ 1.20272 1 0 tcp 1040 ------- 1 1.0 0.0 37 57
+ 1.20272 1 0 tcp 1040 ------- 1 1.0 0.0 38 58
- 1.20736 1 0 tcp 1040 ------- 1 1.0 0.0 22 34
r 1.20904 1 0 tcp 1040 ------- 1 1.0 0.0 20 31
+ 1.20904 0 1 ack 40 ------- 1 0.0 1.0 20 59
- 1.20904 0 1 ack 40 ------- 1 0.0 1.0 20 59
r 1.21104 0 1 ack 40 ------- 1 0.0 1.0 19 56
+ 1.21104 1 0 tcp 1040 ------- 1 1.0 0.0 39 60
- 1.21568 1 0 tcp 1040 ------- 1 1.0 0.0 23 36
r 1.21736 1 0 tcp 1040 ------- 1 1.0 0.0 21 33
+ 1.21736 0 1 ack 40 ------- 1 0.0 1.0 21 61
- 1.21736 0 1 ack 40 ------- 1 0.0 1.0 21 61
r 1.21936 0 1 ack 40 ------- 1 0.0 1.0 20 59
+ 1.21936 1 0 tcp 1040 ------- 1 1.0 0.0 40 62
- 1.224 1 0 tcp 1040 ------- 1 1.0 0.0 24 37
r 1.22568 1 0 tcp 1040 ------- 1 1.0 0.0 22 34
+ 1.22568 0 1 ack 40 ------- 1 0.0 1.0 22 63
- 1.22568 0 1 ack 40 ------- 1 0.0 1.0 22 63
r 1.22768 0 1 ack 40 ------- 1 0.0 1.0 21 61
+ 1.22768 1 0 tcp 1040 ------- 1 1.0 0.0 41 64
- 1.23232 1 0 tcp 1040 ------- 1 1.0 0.0 25 39
r 1.234 1 0 tcp 1040 ------- 1 1.0 0.0 23 36
+ 1.234 0 1 ack 40 ------- 1 0.0 1.0 23 65
- 1.234 0 1 ack 40 ------- 1 0.0 1.0 23 65
r 1.236 0 1 ack 40 ------- 1 0.0 1.0 22 63
+ 1.236 1 0 tcp 1040 ------- 1 1.0 0.0 42 66
- 1.24064 1 0 tcp 1040 ------- 1 1.0 0.0 26 40
r 1.24232 1 0 tcp 1040 ------- 1 1.0 0.0 24 37
+ 1.24232 0 1 ack 40 ------- 1 0.0 1.0 24 67
- 1.24232 0 1 ack 40 ------- 1 0.0 1.0 24 67
r 1.24432 0 1 ack 40 ------- 1 0.0 1.0 23 65
+ 1.24432 1 0 tcp 1040 ------- 1 1.0 0.0 43 68
- 1.24896 1 0 tcp 1040 ------- 1 1.0 0.0 27 42
r 1.25064 1 0 tcp 1040 ------- 1 1.0 0.0 25 39
+ 1.25064 0 1 ack 40 ------- 1 0.0 1.0 25 69
- 1.25064 0 1 ack 40 ------- 1 0.0 1.0 25 69
r 1.25264 0 1 ack 40 ------- 1 0.0 1.0 24 67
+ 1.25264 1 0 tcp 1040 ------- 1 1.0 0.0 44 70
- 1.25728 1 0 tcp 1040 ------- 1 1.0 0.0 28 43
r 1.25896 1 0 tcp 1040 ------- 1 1.0 0.0 26 40
+ 1.25896 0 1 ack 40 ------- 1 0.0 1.0 26 71
- 1.25896 0 1 ack 40 ------- 1 0.0 1.0 26 71
r 1.26096 0 1 ack 40 ------- 1 0.0 1.0 25 69
+ 1.26096 1 0 tcp 1040 ------- 1 1.0 0.0 45 72
- 1.2656 1 0 tcp 1040 ------- 1 1.0 0.0 29 45
r 1.26728 1 0 tcp 1040 ------- 1 1.0 0.0 27 42
+ 1.26728 0 1 ack 40 ------- 1 0.0 1.0 27 73
- 1.26728 0 1 ack 40 ------- 1 0.0 1.0 27 73
r 1.26928 0 1 ack 40 ------- 1 0.0 1.0 26 71
+ 1.26928 1 0 tcp 1040 ------- 1 1.0 0.0 46 74
- 1.27392 1 0 tcp 1040 ------- 1 1.0 0.0 30 46
r 1.2756 1 0 tcp 1040 ------- 1 1.0 0.0 28 43
+ 1.2756 0 1 ack 40 ------- 1 0.0 1.0 28 75
- 1.2756 0 1 ack 40 ------- 1 0.0 1.0 28 75
r 1.2776 0 1 ack 40 ------- 1 0.0 1.0 27 73
+ 1.2776 1 0 tcp 1040 ------- 1 1.0 0.0 47 76
- 1.28224 1 0 tcp 1040 ------- 1 1.0 0.0 31 48
r 1.28392 1 0 tcp 1040 ------- 1 1.0 0.0 29 45
+ 1.28392 0 1 ack 40 ------- 1 0.0 1.0 29 77
- 1.28392 0 1 ack 40 ------- 1 0.0 1.0 29 77
r 1.28592 0 1 ack 40 ------- 1 0.0 1.0 28 75
+ 1.28592 1 0 tcp 1040 ------- 1 1.0 0.0 48 78
- 1.29056 1 0 tcp 1040 ------- 1 1.0 0.0 32 49
r 1.29224 1 0 tcp 1040 ------- 1 1.0 0.0 30 46
+ 1.29224 0 1 ack 40 ------- 1 0.0 1.0 30 79
- 1.29224 0 1 ack 40 ------- 1 0.0 1.0 30 79
r 1.29424 0 1 ack 40 ------- 1 0.0 1.0 29 77
+ 1.29424 1 0 tcp 1040 ------- 1 1.0 0.0 49 80
- 1.29888 1 0 tcp 1040 ------- 1 1.0 0.0 33 51
r 1.30056 1 0 tcp 1040 ------- 1 1.0 0.0 31 48
+ 1.30056 0 1 ack 40 ------- 1 0.0 1.0 31 81
- 1.30056 0 1 ack 40 ------- 1 0.0 1.0 31 81
r 1.30256 0 1 ack 40 ------- 1 0.0 1.0 30 79
+ 1.30256 1 0 tcp 1040 ------- 1 1.0 0.0 50 82
- 1.3072 1 0 tcp 1040 ------- 1 1.0 0.0 34 52
r 1.30888 1 0 tcp 1040 ------- 1 1.0 0.0 32 49
+ 1.30888 0 1 ack 40 ------- 1 0.0 1.0 32 83
- 1.30888 0 1 ack 40 ------- 1 0.0 1.0 32 83
r 1.31088 0 1 ack 40 ------- 1 0.0 1.0 31 81
+ 1.31088 1 0 tcp 1040 ------- 1 1.0 0.0 51 84
- 1.31552 1 0 tcp 1040 ------- 1 1.0 0.0 35 54
r 1.3172 1 0 tcp 1040 ------- 1 1.0 0.0 33 51
+ 1.3172 0 1 ack 40 ------- 1 0.0 1.0 33 85
- 1.3172 0 1 ack 40 ------- 1 0.0 1.0 33 85
r 1.3192 0 1 ack 40 ------- 1 0.0 1.0 32 83
+ 1.3192 1 0 tcp 1040 ------- 1 1.0 0.0 52 86
- 1.32384 1 0 tcp 1040 ------- 1 1.0 0.0 36 55
r 1.32552 1 0 tcp 1040 ------- 1 1.0 0.0 34 52
+ 1.32552 0 1 ack 40 ------- 1 0.0 1.0 34 87
- 1.32552 0 1 ack 40 ------- 1 0.0 1.0 34 87
r 1.32752 0 1 ack 40 ------- 1 0.0 1.0 33 85
+ 1.32752 1 0 tcp 1040 ------- 1 1.0 0.0 53 88
- 1.33216 1 0 tcp 1040 ------- 1 1.0 0.0 37 57
r 1.33384 1 0 tcp 1040 ------- 1 1.0 0.0 35 54
+ 1.33384 0 1 ack 40 ------- 1 0.0 1.0 35 89
- 1.33384 0 1 ack 40 ------- 1 0.0 1.0 35 89
r 1.33584 0 1 ack 40 ------- 1 0.0 1.0 34 87
+ 1.33584 1 0 tcp 1040 ------- 1 1.0 0.0 54 90
- 1.34048 1 0 tcp 1040 ------- 1 1.0 0.0 38 58
r 1.34216 1 0 tcp 1040 ------- 1 1.0 0.0 36 55
+ 1.34216 0 1 ack 40 ------- 1 0.0 1.0 36 91
- 1.34216 0 1 ack 40 ------- 1 0.0 1.0 36 91
r 1.34416 0 1 ack 40 ------- 1 0.0 1.0 35 89
+ 1.34416 1 0 tcp 1040 ------- 1 1.0 0.0 55 92
- 1.3488 1 0 tcp 1040 ------- 1 1.0 0.0 39 60
r 1.35048 1 0 tcp 1040 ------- 1 1.0 0.0 37 57
+ 1.35048 0 1 ack 40 ------- 1 0.0 1.0 37 93
- 1.35048 0 1 ack 40 ------- 1 0.0 1.0 37 93
r 1.35248 0 1 ack 40 ------- 1 0.0 1.0 36 91
+ 1.35248 1 0 tcp 1040 ------- 1 1.0 0.0 56 94
- 1.35712 1 0 tcp 1040 ------- 1 1.0 0.0 40 62
r 1.3588 1 0 tcp 1040 ------- 1 1.0 0.0 38 58
+ 1.3588 0 1 ack 40 ------- 1 0.0 1.0 38 95
- 1.3588 0 1 ack 40 ------- 1 0.0 1.0 38 95
r 1.3608 0 1 ack 40 ------- 1 0.0 1.0 37 93
+ 1.3608 1 0 tcp 1040 ------- 1 1.0 0.0 57 96
- 1.36544 1 0 tcp 1040 ------- 1 1.0 0.0 41 64
r 1.36712 1 0 tcp 1040 ------- 1 1.0 0.0 39 60
+ 1.36712 0 1 ack 40 ------- 1 0.0 1.0 39 97
- 1.36712 0 1 ack 40 ------- 1 0.0 1.0 39 97
r 1.36912 0 1 ack 40 ------- 1 0.0 1.0 38 95
+ 1.36912 1 0 tcp 1040 ------- 1 1.0 0.0 58 98
- 1.37376 1 0 tcp 1040 ------- 1 1.0 0.0 42 66
r 1.37544 1 0 tcp 1040 ------- 1 1.0 0.0 40 62
+ 1.37544 0 1 ack 40 ------- 1 0.0 1.0 40 99
- 1.37544 0 1 ack 40 ------- 1 0.0 1.0 40 99
r 1.37744 0 1 ack 40 ------- 1 0.0 1.0 39 97
+ 1.37744 1 0 tcp 1040 ------- 1 1.0 0.0 59 100
- 1.38208 1 0 tcp 1040 ------- 1 1.0 0.0 43 68
r 1.38376 1 0 tcp 1040 ------- 1 1.0 0.0 41 64
+ 1.38376 0 1 ack 40 ------- 1 0.0 1.0 41 101
- 1.38376 0 1 ack 40 ------- 1 0.0 1.0 41 101
r 1.38576 0 1 ack 40 ------- 1 0.0 1.0 40 99
+ 1.38576 1 0 tcp 1040 ------- 1 1.0 0.0 60 102
- 1.3904 1 0 tcp 1040 ------- 1 1.0 0.0 44 70
r 1.39208 1 0 tcp 1040 ------- 1 1.0 0.0 42 66
+ 1.39208 0 1 ack 40 ------- 1 0.0 1.0 42 103
- 1.39208 0 1 ack 40 ------- 1 0.0 1.0 42 103
r 1.39408 0 1 ack 40 ------- 1 0.0 1.0 41 101
+ 1.39408 1 0 tcp 1040 ------- 1 1.0 0.0 61 104
- 1.39872 1 0 tcp 1040 ------- 1 1.0 0.0 45 72
r 1.4004 1 0 tcp 1040 ------- 1 1.0 0.0 43 68
+ 1.4004 0 1 ack 40 ------- 1 0.0 1.0 43 105
- 1.4004 0 1 ack 40 ------- 1 0.0 1.0 43 105
r 1.4024 0 1 ack 40 ------- 1 0.0 1.0 42 103
+ 1.4024 1 0 tcp 1040 ------- 1 1.0 0.0 62 106
- 1.40704 1 0 tcp 1040 ------- 1 1.0 0.0 46 74
r 1.40872 1 0 tcp 1040 ------- 1 1.0 0.0 44 70
+ 1.40872 0 1 ack 40 ------- 1 0.0 1.0 44 107
- 1.40872 0 1 ack 40 ------- 1 0.0 1.0 44 107
r 1.41072 0 1 ack 40 ------- 1 0.0 1.0 43 105
+ 1.41072 1 0 tcp 1040 ------- 1 1.0 0.0 63 108
- 1.41536 1 0 tcp 1040 ------- 1 1.0 0.0 47 76
r 1.41704 1 0 tcp 1040 ------- 1 1.0 0.0 45 72
+ 1.41704 0 1 ack 40 ------- 1 0.0 1.0 45 109
- 1.41704 0 1 ack 40 ------- 1 0.0 1.0 45 109
r 1.41904 0 1 ack 40 ------- 1 0.0 1.0 44 107
+ 1.41904 1 0 tcp 1040 ------- 1 1.0 0.0 64 110
- 1.42368 1 0 tcp 1040 ------- 1 1.0 0.0 48 78
r 1.42536 1 0 tcp 1040 ------- 1 1.0 0.0 46 74
+ 1.42536 0 1 ack 40 ------- 1 0.0 1.0 46 111
- 1.42536 0 1 ack 40 ------- 1 0.0 1.0 46 111
r 1.42736 0 1 ack 40 ------- 1 0.0 1.0 45 109
+ 1.42736 1 0 tcp 1040 ------- 1 1.0 0.0 65 112
- 1.432 1 0 tcp 1040 ------- 1 1.0 0.0 49 80
r 1.43368 1 0 tcp 1040 ------- 1 1.0 0.0 47 76
+ 1.43368 0 1 ack 40 ------- 1 0.0 1.0 47 113
- 1.43368 0 1 ack 40 ------- 1 0.0 1.0 47 113
r 1.43568 0 1 ack 40 ------- 1 0.0 1.0 46 111
+ 1.43568 1 0 tcp 1040 ------- 1 1.0 0.0 66 114
- 1.44032 1 0 tcp 1040 ------- 1 1.0 0.0 50 82
r 1.442 1 0 tcp 1040 ------- 1 1.0 0.0 48 78
+ 1.442 0 1 ack 40 ------- 1 0.0 1.0 48 115
- 1.442 0 1 ack 40 ------- 1 0.0 1.0 48 115
r 1.444 0 1 ack 40 ------- 1 0.0 1.0 47 113
+ 1.444 1 0 tcp 1040 ------- 1 1.0 0.0 67 116
- 1.44864 1 0 tcp 1040 ------- 1 1.0 0.0 51 84
r 1.45032 1 0 tcp 1040 ------- 1 1.0 0.0 49 80
+ 1.45032 0 1 ack 40 ------- 1 0.0 1.0 49 117
- 1.45032 0 1 ack 40 ------- 1 0.0 1.0 49 117
r 1.45232 0 1 ack 40 ------- 1 0.0 1.0 48 115
+ 1.45232 1 0 tcp 1040 ------- 1 1.0 0.0 68 118
- 1.45696 1 0 tcp 1040 ------- 1 1.0 0.0 52 86
r 1.45864 1 0 tcp 1040 ------- 1 1.0 0.0 50 82
+ 1.45864 0 1 ack 40 ------- 1 0.0 1.0 50 119
- 1.45864 0 1 ack 40 ------- 1 0.0 1.0 50 119
r 1.46064 0 1 ack 40 ------- 1 0.0 1.0 49 117
+ 1.46064 1 0 tcp 1040 ------- 1 1.0 0.0 69 120
- 1.46528 1 0 tcp 1040 ------- 1 1.0 0.0 53 88
r 1.46696 1 0 tcp 1040 ------- 1 1.0 0.0 51 84
+ 1.46696 0 1 ack 40 ------- 1 0.0 1.0 51 121
- 1.46696 0 1 ack 40 ------- 1 0.0 1.0 51 121
r 1.46896 0 1 ack 40 ------- 1 0.0 1.0 50 119
+ 1.46896 1 0 tcp 1040 ------- 1 1.0 0.0 70 122
- 1.4736 1 0 tcp 1040 ------- 1 1.0 0.0 54 90
r 1.47528 1 0 tcp 1040 ------- 1 1.0 0.0 52 86
+ 1.47528 0 1 ack 40 ------- 1 0.0 1.0 52 123
- 1.47528 0 1 ack 40 ------- 1 0.0 1.0 52 123
r 1.47728 0 1 ack 40 ------- 1 0.0 1.0 51 121
+ 1.47728 1 0 tcp 1040 ------- 1 1.0 0.0 71 124
- 1.48192 1 0 tcp 1040 ------- 1 1.0 0.0 55 92
r 1.4836 1 0 tcp 1040 ------- 1 1.0 0.0 53 88
+ 1.4836 0 1 ack 40 ------- 1 0.0 1.0 53 125
- 1.4836 0 1 ack 40 ------- 1 0.0 1.0 53 125
r 1.4856 0 1 ack 40 ------- 1 0.0 1.0 52 123
+ 1.4856 1 0 tcp 1040 ------- 1 1.0 0.0 72 126
- 1.49024 1 0 tcp 1040 ------- 1 1.0 0.0 56 94
r 1.49192 1 0 tcp 1040 ------- 1 1.0 0.0 54 90
+ 1.49192 0 1 ack 40 ------- 1 0.0 1.0 54 127
- 1.49192 0 1 ack 40 ------- 1 0.0 1.0 54 127
r 1.49392 0 1 ack 40 ------- 1 0.0 1.0 53 125
+ 1.49392 1 0 tcp 1040 ------- 1 1.0 0.0 73 128
- 1.49856 1 0 tcp 1040 ------- 1 1.0 0.0 57 96
+ 1.5 2 0 tcp 40 ------- 1 2.0 0.1 0 129
- 1.5 2 0 tcp 40 ------- 1 2.0 0.1 0 129
r 1.50024 1 0 tcp 1040 ------- 1 1.0 0.0 55 92
+ 1.50024 0 1 ack 40 ------- 1 0.0 1.0 55 130
- 1.50024 0 1 ack 40 ------- 1 0.0 1.0 55 130
r 1.50224 0 1 ack 40 ------- 1 0.0 1.0 54 127
+ 1.50224 1 0 tcp 1040 ------- 1 1.0 0.0 74 131
- 1.50688 1 0 tcp 1040 ------- 1 1.0 0.0 58 98
r 1.50856 1 0 tcp 1040 ------- 1 1.0 0.0 56 94
+ 1.50856 0 1 ack 40 ------- 1 0.0 1.0 56 132
- 1.50856 0 1 ack 40 ------- 1 0.0 1.0 56 132
r 1.51032 2 0 tcp 40 ------- 1 2.0 0.1 0 129
+ 1.51032 0 2 ack 40 ------- 1 0.1 2.0 0 133
- 1.51032 0 2 ack 40 ------- 1 0.1 2.0 0 133
r 1.51056 0 1 ack 40 ------- 1 0.0 1.0 55 130
+ 1.51056 1 0 tcp 1040 ------- 1 1.0 0.0 75 134
- 1.5152 1 0 tcp 1040 ------- 1 1.0 0.0 59 100
r 1.51688 1 0 tcp 1040 ------- 1 1.0 0.0 57 96
+ 1.51688 0 1 ack 40 ------- 1 0.0 1.0 57 135
- 1.51688 0 1 ack 40 ------- 1 0.0 1.0 57 135
r 1.51888 0 1 ack 40 ------- 1 0.0 1.0 56 132
+ 1.51888 1 0 tcp 1040 ------- 1 1.0 0.0 76 136
r 1.52064 0 2 ack 40 ------- 1 0.1 2.0 0 133
+ 1.52064 2 0 tcp 1040 ------- 1 2.0 0.1 1 137
- 1.52064 2 0 tcp 1040 ------- 1 2.0 0.1 1 137
+ 1.52064 2 0 tcp 1040 ------- 1 2.0 0.1 2 138
- 1.52352 1 0 tcp 1040 ------- 1 1.0 0.0 60 102
r 1.5252 1 0 tcp 1040 ------- 1 1.0 0.0 58 98
+ 1.5252 0 1 ack 40 ------- 1 0.0 1.0 58 139
- 1.5252 0 1 ack 40 ------- 1 0.0 1.0 58 139
r 1.5272 0 1 ack 40 ------- 1 0.0 1.0 57 135
+ 1.5272 1 0 tcp 1040 ------- 1 1.0 0.0 77 140
- 1.52896 2 0 tcp 1040 ------- 1 2.0 0.1 2 138
- 1.53184 1 0 tcp 1040 ------- 1 1.0 0.0 61 104
r 1.53352 1 0 tcp 1040 ------- 1 1.0 0.0 59 100
+ 1.53352 0 1 ack 40 ------- 1 0.0 1.0 59 141
- 1.53352 0 1 ack 40 ------- 1 0.0 1.0 59 141
r 1.53552 0 1 ack 40 ------- 1 0.0 1.0 58 139
+ 1.53552 1 0 tcp 1040 ------- 1 1.0 0.0 78 142
r 1.53896 2 0 tcp 1040 ------- 1 2.0 0.1 1 137
+ 1.53896 0 2 ack 40 ------- 1 0.1 2.0 1 143
- 1.53896 0 2 ack 40 ------- 1 0.1 2.0 1 143
- 1.54016 1 0 tcp 1040 ------- 1 1.0 0.0 62 106
r 1.54184 1 0 tcp 1040 ------- 1 1.0 0.0 60 102
+ 1.54184 0 1 ack 40 ------- 1 0.0 1.0 60 144
- 1.54184 0 1 ack 40 ------- 1 0.0 1.0 60 144
r 1.54384 0 1 ack 40 ------- 1 0.0 1.0 59 141
+ 1.54384 1 0 tcp 1040 ------- 1 1.0 0.0 79 145
r 1.54728 2 0 tcp 1040 ------- 1 2.0 0.1 2 138
+ 1.54728 0 2 ack 40 ------- 1 0.1 2.0 2 146
- 1.54728 0 2 ack 40 ------- 1 0.1 2.0 2 146
- 1.54848 1 0 tcp 1040 ------- 1 1.0 0.0 63 108
r 1.54928 0 2 ack 40 ------- 1 0.1 2.0 1 143
+ 1.54928 2 0 tcp 1040 ------- 1 2.0 0.1 3 147
- 1.54928 2 0 tcp 1040 ------- 1 2.0 0.1 3 147
+ 1.54928 2 0 tcp 1040 ------- 1 2.0 0.1 4 148
r 1.55016 1 0 tcp 1040 ------- 1 1.0 0.0 61 104
+ 1.55016 0 1 ack 40 ------- 1 0.0 1.0 61 149
- 1.55016 0 1 ack 40 ------- 1 0.0 1.0 61 149
r 1.55216 0 1 ack 40 ------- 1 0.0 1.0 60 144
+ 1.55216 1 0 tcp 1040 ------- 1 1.0 0.0 80 150
- 1.5568 1 0 tcp 1040 ------- 1 1.0 0.0 64 110
r 1.5576 0 2 ack 40 ------- 1 0.1 2.0 2 146
+ 1.5576 2 0 tcp 1040 ------- 1 2.0 0.1 5 151
+ 1.5576 2 0 tcp 1040 ------- 1 2.0 0.1 6 152
- 1.5576 2 0 tcp 1040 ------- 1 2.0 0.1 4 148
r 1.55848 1 0 tcp 1040 ------- 1 1.0 0.0 62 106
+ 1.55848 0 1 ack 40 ------- 1 0.0 1.0 62 153
- 1.55848 0 1 ack 40 ------- 1 0.0 1.0 62 153
r 1.56048 0 1 ack 40 ------- 1 0.0 1.0 61 149
+ 1.56048 1 0 tcp 1040 ------- 1 1.0 0.0 81 154
- 1.56512 1 0 tcp 1040 ------- 1 1.0 0.0 65 112
- 1.56592 2 0 tcp 1040 ------- 1 2.0 0.1 5 151
r 1.5668 1 0 tcp 1040 ------- 1 1.0 0.0 63 108
+ 1.5668 0 1 ack 40 ------- 1 0.0 1.0 63 155
- 1.5668 0 1 ack 40 ------- 1 0.0 1.0 63 155
r 1.5676 2 0 tcp 1040 ------- 1 2.0 0.1 3 147
+ 1.5676 0 2 ack 40 ------- 1 0.1 2.0 3 156
- 1.5676 0 2 ack 40 ------- 1 0.1 2.0 3 156
r 1.5688 0 1 ack 40 ------- 1 0.0 1.0 62 153
+ 1.5688 1 0 tcp 1040 ------- 1 1.0 0.0 82 157
- 1.57344 1 0 tcp 1040 ------- 1 1.0 0.0 66 114
- 1.57424 2 0 tcp 1040 ------- 1 2.0 0.1 6 152
r 1.57512 1 0 tcp 1040 ------- 1 1.0 0.0 64 110
+ 1.57512 0 1 ack 40 ------- 1 0.0 1.0 64 158
- 1.57512 0 1 ack 40 ------- 1 0.0 1.0 64 158
r 1.57592 2 0 tcp 1040 ------- 1 2.0 0.1 4 148
+ 1.57592 0 2 ack 40 ------- 1 0.1 2.0 4 159
- 1.57592 0 2 ack 40 ------- 1 0.1 2.0 4 159
r 1.57712 0 1 ack 40 ------- 1 0.0 1.0 63 155
+ 1.57712 1 0 tcp 1040 ------- 1 1.0 0.0 83 160
r 1.57792 0 2 ack 40 ------- 1 0.1 2.0 3 156
+ 1.57792 2 0 tcp 1040 ------- 1 2.0 0.1 7 161
+ 1.57792 2 0 tcp 1040 ------- 1 2.0 0.1 8 162
- 1.58176 1 0 tcp 1040 ------- 1 1.0 0.0 67 116
- 1.58256 2 0 tcp 1040 ------- 1 2.0 0.1 7 161
r 1.58344 1 0 tcp 1040 ------- 1 1.0 0.0 65 112
+ 1.58344 0 1 ack 40 ------- 1 0.0 1.0 65 163
- 1.58344 0 1 ack 40 ------- 1 0.0 1.0 65 163
r 1.58424 2 0 tcp 1040 ------- 1 2.0 0.1 5 151
+ 1.58424 0 2 ack 40 ------- 1 0.1 2.0 5 164
- 1.58424 0 2 ack 40 ------- 1 0.1 2.0 5 164
r 1.58544 0 1 ack 40 ------- 1 0.0 1.0 64 158
+ 1.58544 1 0 tcp 1040 ------- 1 1.0 0.0 84 165
r 1.58624 0 2 ack 40 ------- 1 0.1 2.0 4 159
+ 1.58624 2 0 tcp 1040 ------- 1 2.0 0.1 9 166
+ 1.58624 2 0 tcp 1040 ------- 1 2.0 0.1 10 167
- 1.59008 1 0 tcp 1040 ------- 1 1.0 0.0 68 118
- 1.59088 2 0 tcp 1040 ------- 1 2.0 0.1 8 162
r 1.59176 1 0 tcp 1040 ------- 1 1.0 0.0 66 114
+ 1.59176 0 1 ack 40 ------- 1 0.0 1.0 66 168
- 1.59176 0 1 ack 40 ------- 1 0.0 1.0 66 168
r 1.59256 2 0 tcp 1040 ------- 1 2.0 0.1 6 152
+ 1.59256 0 2 ack 40 ------- 1 0.1 2.0 6 169
- 1.59256 0 2 ack 40 ------- 1 0.1 2.0 6 169
r 1.59376 0 1 ack 40 ------- 1 0.0 1.0 65 163
+ 1.59376 1 0 tcp 1040 ------- 1 1.0 0.0 85 170
r 1.59456 0 2 ack 40 ------- 1 0.1 2.0 5 164
+ 1.59456 2 0 tcp 1040 ------- 1 2.0 0.1 11 171
+ 1.59456 2 0 tcp 1040 ------- 1 2.0 0.1 12 172
- 1.5984 1 0 tcp 1040 ------- 1 1.0 0.0 69 120
- 1.5992 2 0 tcp 1040 ------- 1 2.0 0.1 9 166
r 1.60008 1 0 tcp 1040 ------- 1 1.0 0.0 67 116
+ 1.60008 0 1 ack 40 ------- 1 0.0 1.0 67 173
- 1.60008 0 1 ack 40 ------- 1 0.0 1.0 67 173
r 1.60088 2 0 tcp 1040 ------- 1 2.0 0.1 7 161
+ 1.60088 0 2 ack 40 ------- 1 0.1 2.0 7 174
- 1.60088 0 2 ack 40 ------- 1 0.1 2.0 7 174
r 1.60208 0 1 ack 40 ------- 1 0.0 1.0 66 168
+ 1.60208 1 0 tcp 1040 ------- 1 1.0 0.0 86 175
r 1.60288 0 2 ack 40 ------- 1 0.1 2.0 6 169
+ 1.60288 2 0 tcp 1040 ------- 1 2.0 0.1 13 176
+ 1.60288 2 0 tcp 1040 ------- 1 2.0 0.1 14 177
- 1.60672 1 0 tcp 1040 ------- 1 1.0 0.0 70 122
- 1.60752 2 0 tcp 1040 ------- 1 2.0 0.1 10 167
r 1.6084 1 0 tcp 1040 ------- 1 1.0 0.0 68 118
+ 1.6084 0 1 ack 40 ------- 1 0.0 1.0 68 178
- 1.6084 0 1 ack 40 ------- 1 0.0 1.0 68 178
r 1.6092 2 0 tcp 1040 ------- 1 2.0 0.1 8 162
+ 1.6092 0 2 ack 40 ------- 1 0.1 2.0 8 179
- 1.6092 0 2 ack 40 ------- 1 0.1 2.0 8 179
r 1.6104 0 1 ack 40 ------- 1 0.0 1.0 67 173
+ 1.6104 1 0 tcp 1040 ------- 1 1.0 0.0 87 180
r 1.6112 0 2 ack 40 ------- 1 0.1 2.0 7 174
+ 1.6112 2 0 tcp 1040 ------- 1 2.0 0.1 15 181
+ 1.6112 2 0 tcp 1040 ------- 1 2.0 0.1 16 182
- 1.61504 1 0 tcp 1040 ------- 1 1.0 0.0 71 124
- 1.61584 2 0 tcp 1040 ------- 1 2.0 0.1 11 171
r 1.61672 1 0 tcp 1040 ------- 1 1.0 0.0 69 120
+ 1.61672 0 1 ack 40 ------- 1 0.0 1.0 69 183
- 1.61672 0 1 ack 40 ------- 1 0.0 1.0 69 183
r 1.61752 2 0 tcp 1040 ------- 1 2.0 0.1 9 166
+ 1.61752 0 2 ack 40 ------- 1 0.1 2.0 9 184
- 1.61752 0 2 ack 40 ------- 1 0.1 2.0 9 184
r 1.61872 0 1 ack 40 ------- 1 0.0 1.0 68 178
+ 1.61872 1 0 tcp 1040 ------- 1 1.0 0.0 88 185
r 1.61952 0 2 ack 40 ------- 1 0.1 2.0 8 179
+ 1.61952 2 0 tcp 1040 ------- 1 2.0 0.1 17 186
+ 1.61952 2 0 tcp 1040 ------- 1 2.0 0.1 18 187
- 1.62336 1 0 tcp 1040 ------- 1 1.0 0.0 72 126
- 1.62416 2 0 tcp 1040 ------- 1 2.0 0.1 12 172
r 1.62504 1 0 tcp 1040 ------- 1 1.0 0.0 70 122
+ 1.62504 0 1 ack 40 ------- 1 0.0 1.0 70 188
- 1.62504 0 1 ack 40 ------- 1 0.0 1.0 70 188
r 1.62584 2 0 tcp 1040 ------- 1 2.0 0.1 10 167
+ 1.62584 0 2 ack 40 ------- 1 0.1 2.0 10 189
- 1.62584 0 2 ack 40 ------- 1 0.1 2.0 10 189
r 1.62704 0 1 ack 40 ------- 1 0.0 1.0 69 183
+ 1.62704 1 0 tcp 1040 ------- 1 1.0 0.0 89 190
r 1.62784 0 2 ack 40 ------- 1 0.1 2.0 9 184
+ 1.62784 2 0 tcp 1040 ------- 1 2.0 0.1 19 191
+ 1.62784 2 0 tcp 1040 ------- 1 2.0 0.1 20 192
- 1.63168 1 0 tcp 1040 ------- 1 1.0 0.0 73 128
- 1.63248 2 0 tcp 1040 ------- 1 2.0 0.1 13 176
r 1.63336 1 0 tcp 1040 ------- 1 1.0 0.0 71 124
+ 1.63336 0 1 ack 40 ------- 1 0.0 1.0 71 193
- 1.63336 0 1 ack 40 ------- 1 0.0 1.0 71 193
r 1.63416 2 0 tcp 1040 ------- 1 2.0 0.1 11 171
+ 1.63416 0 2 ack 40 ------- 1 0.1 2.0 11 194
- 1.63416 0 2 ack 40 ------- 1 0.1 2.0 11 194
r 1.63536 0 1 ack 40 ------- 1 0.0 1.0 70 188
+ 1.63536 1 0 tcp 1040 ------- 1 1.0 0.0 90 195
r 1.63616 0 2 ack 40 ------- 1 0.1 2.0 10 189
+ 1.63616 2 0 tcp 1040 ------- 1 2.0 0.1 21 196
+ 1.63616 2 0 tcp 1040 ------- 1 2.0 0.1 22 197
- 1.64 1 0 tcp 1040 ------- 1 1.0 0.0 74 131
- 1.6408 2 0 tcp 1040 ------- 1 2.0 0.1 14 177
r 1.64168 1 0 tcp 1040 ------- 1 1.0 0.0 72 126
+ 1.64168 0 1 ack 40 ------- 1 0.0 1.0 72 198
- 1.64168 0 1 ack 40 ------- 1 0.0 1.0 72 198
r 1.64248 2 0 tcp 1040 ------- 1 2.0 0.1 12 172
+ 1.64248 0 2 ack 40 ------- 1 0.1 2.0 12 199
- 1.64248 0 2 ack 40 ------- 1 0.1 2.0 12 199
r 1.64368 0 1 ack 40 ------- 1 0.0 1.0 71 193
+ 1.64368 1 0 tcp 1040 ------- 1 1.0 0.0 91 200
r 1.64448 0 2 ack 40 ------- 1 0.1 2.0 11 194
+ 1.64448 2 0 tcp 1040 ------- 1 2.0 0.1 23 201
+ 1.64448 2 0 tcp 1040 ------- 1 2.0 0.1 24 202
- 1.64832 1 0 tcp 1040 ------- 1 1.0 0.0 75 134
- 1.64912 2 0 tcp 1040 ------- 1 2.0 0.1 15 181
r 1.65 1 0 tcp 1040 ------- 1 1.0 0.0 73 128
+ 1.65 0 1 ack 40 ------- 1 0.0 1.0 73 203
- 1.65 0 1 ack 40 ------- 1 0.0 1.0 73 203
r 1.6508 2 0 tcp 1040 ------- 1 2.0 0.1 13 176
+ 1.6508 0 2 ack 40 ------- 1 0.1 2.0 13 204
- 1.6508 0 2 ack 40 ------- 1 0.1 2.0 13 204
r 1.652 0 1 ack 40 ------- 1 0.0 1.0 72 198
+ 1.652 1 0 tcp 1040 ------- 1 1.0 0.0 92 205
r 1.6528 0 2 ack 40 ------- 1 0.1 2.0 12 199
+ 1.6528 2 0 tcp 1040 ------- 1 2.0 0.1 25 206
+ 1.6528 2 0 tcp 1040 ------- 1 2.0 0.1 26 207
- 1.65664 1 0 tcp 1040 ------- 1 1.0 0.0 76 136
- 1.65744 2 0 tcp 1040 ------- 1 2.0 0.1 16 182
r 1.65832 1 0 tcp 1040 ------- 1 1.0 0.0 74 131
+ 1.65832 0 1 ack 40 ------- 1 0.0 1.0 74 208
- 1.65832 0 1 ack 40 ------- 1 0.0 1.0 74 208
r 1.65912 2 0 tcp 1040 ------- 1 2.0 0.1 14 177
+ 1.65912 0 2 ack 40 ------- 1 0.1 2.0 14 209
- 1.65912 0 2 ack 40 ------- 1 0.1 2.0 14 209
r 1.66032 0 1 ack 40 ------- 1 0.0 1.0 73 203
+ 1.66032 1 0 tcp 1040 ------- 1 1.0 0.0 93 210
r 1.66112 0 2 ack 40 ------- 1 0.1 2.0 13 204
+ 1.66112 2 0 tcp 1040 ------- 1 2.0 0.1 27 211
+ 1.66112 2 0 tcp 1040 ------- 1 2.0 0.1 28 212
- 1.66496 1 0 tcp 1040 ------- 1 1.0 0.0 77 140
- 1.66576 2 0 tcp 1040 ------- 1 2.0 0.1 17 186
r 1.66664 1 0 tcp 1040 ------- 1 1.0 0.0 75 134
+ 1.66664 0 1 ack 40 ------- 1 0.0 1.0 75 213
- 1.66664 0 1 ack 40 ------- 1 0.0 1.0 75 213
r 1.66744 2 0 tcp 1040 ------- 1 2.0 0.1 15 181
+ 1.66744 0 2 ack 40 ------- 1 0.1 2.0 15 214
- 1.66744 0 2 ack 40 ------- 1 0.1 2.0 15 214
r 1.66864 0 1 ack 40 ------- 1 0.0 1.0 74 208
+ 1.66864 1 0 tcp 1040 ------- 1 1.0 0.0 94 215
r 1.66944 0 2 ack 40 ------- 1 0.1 2.0 14 209
+ 1.66944 2 0 tcp 1040 ------- 1 2.0 0.1 29 216
+ 1.66944 2 0 tcp 1040 ------- 1 2.0 0.1 30 217
- 1.67328 1 0 tcp 1040 ------- 1 1.0 0.0 78 142
- 1.67408 2 0 tcp 1040 ------- 1 2.0 0.1 18 187
r 1.67496 1 0 tcp 1040 ------- 1 1.0 0.0 76 136
+ 1.67496 0 1 ack 40 ------- 1 0.0 1.0 76 218
- 1.67496 0 1 ack 40 ------- 1 0.0 1.0 76 218
r 1.67576 2 0 tcp 1040 ------- 1 2.0 0.1 16 182
+ 1.67576 0 2 ack 40 ------- 1 0.1 2.0 16 219
- 1.67576 0 2 ack 40 ------- 1 0.1 2.0 16 219
r 1.67696 0 1 ack 40 ------- 1 0.0 1.0 75 213
+ 1.67696 1 0 tcp 1040 ------- 1 1.0 0.0 95 220
r 1.67776 0 2 ack 40 ------- 1 0.1 2.0 15 214
+ 1.67776 2 0 tcp 1040 ------- 1 2.0 0.1 31 221
+ 1.67776 2 0 tcp 1040 ------- 1 2.0 0.1 32 222
- 1.6816 1 0 tcp 1040 ------- 1 1.0 0.0 79 145
- 1.6824 2 0 tcp 1040 ------- 1 2.0 0.1 19 191
r 1.68328 1 0 tcp 1040 ------- 1 1.0 0.0 77 140
+ 1.68328 0 1 ack 40 ------- 1 0.0 1.0 77 223
- 1.68328 0 1 ack 40 ------- 1 0.0 1.0 77 223
r 1.68408 2 0 tcp 1040 ------- 1 2.0 0.1 17 186
+ 1.68408 0 2 ack 40 ------- 1 0.1 2.0 17 224
- 1.68408 0 2 ack 40 ------- 1 0.1 2.0 17 224
r 1.68528 0 1 ack 40 ------- 1 0.0 1.0 76 218
+ 1.68528 1 0 tcp 1040 ------- 1 1.0 0.0 96 225
r 1.68608 0 2 ack 40 ------- 1 0.1 2.0 16 219
+ 1.68608 2 0 tcp 1040 ------- 1 2.0 0.1 33 226
+ 1.68608 2 0 tcp 1040 ------- 1 2.0 0.1 34 227
- 1.68992 1 0 tcp 1040 ------- 1 1.0 0.0 80 150
- 1.69072 2 0 tcp 1040 ------- 1 2.0 0.1 20 192
r 1.6916 1 0 tcp 1040 ------- 1 1.0 0.0 78 142
+ 1.6916 0 1 ack 40 ------- 1 0.0 1.0 78 228
- 1.6916 0 1 ack 40 ------- 1 0.0 1.0 78 228
r 1.6924 2 0 tcp 1040 ------- 1 2.0 0.1 18 187
+ 1.6924 0 2 ack 40 ------- 1 0.1 2.0 18 229
- 1.6924 0 2 ack 40 ------- 1 0.1 2.0 18 229
r 1.6936 0 1 ack 40 ------- 1 0.0 1.0 77 223
+ 1.6936 1 0 tcp 1040 ------- 1 1.0 0.0 97 230
r 1.6944 0 2 ack 40 ------- 1 0.1 2.0 17 224
+ 1.6944 2 0 tcp 1040 ------- 1 2.0 0.1 35 231
+ 1.6944 2 0 tcp 1040 ------- 1 2.0 0.1 36 232
- 1.69824 1 0 tcp 1040 ------- 1 1.0 0.0 81 154
- 1.69904 2 0 tcp 1040 ------- 1 2.0 0.1 21 196
r 1.69992 1 0 tcp 1040 ------- 1 1.0 0.0 79 145
+ 1.69992 0 1 ack 40 ------- 1 0.0 1.0 79 233
- 1.69992 0 1 ack 40 ------- 1 0.0 1.0 79 233
r 1.70072 2 0 tcp 1040 ------- 1 2.0 0.1 19 191
+ 1.70072 0 2 ack 40 ------- 1 0.1 2.0 19 234
- 1.70072 0 2 ack 40 ------- 1 0.1 2.0 19 234
r 1.70192 0 1 ack 40 ------- 1 0.0 1.0 78 228
+ 1.70192 1 0 tcp 1040 ------- 1 1.0 0.0 98 235
r 1.70272 0 2 ack 40 ------- 1 0.1 2.0 18 229
+ 1.70272 2 0 tcp 1040 ------- 1 2.0 0.1 37 236
+ 1.70272 2 0 tcp 1040 ------- 1 2.0 0.1 38 237
- 1.70656 1 0 tcp 1040 ------- 1 1.0 0.0 82 157
- 1.70736 2 0 tcp 1040 ------- 1 2.0 0.1 22 197
r 1.70824 1 0 tcp 1040 ------- 1 1.0 0.0 80 150
+ 1.70824 0 1 ack 40 ------- 1 0.0 1.0 80 238
- 1.70824 0 1 ack 40 ------- 1 0.0 1.0 80 238
r 1.70904 2 0 tcp 1040 ------- 1 2.0 0.1 20 192
+ 1.70904 0 2 ack 40 ------- 1 0.1 2.0 20 239
- 1.70904 0 2 ack 40 ------- 1 0.1 2.0 20 239
r 1.71024 0 1 ack 40 ------- 1 0.0 1.0 79 233
+ 1.71024 1 0 tcp 1040 ------- 1 1.0 0.0 99 240